TITLE = "Transient Verapamil Diffusion in the Skin                                                                               "
VARIABLES = "X" , "Y" , "CB" , "FTx" , "FTy"

ZONE T=" t:  0.000000E+00",N= 2091,E= 4090,F=FEPOINT,ET=TRIANGLE
 0.0000E+000   0.0000E+000   0.0000E+000   0.0000E+000   0.0000E+000
 0.1000E-001   0.0000E+000   0.0000E+000   0.0000E+000   0.0000E+000
 0.2000E-001   0.0000E+000   0.0000E+000   0.0000E+000   0.0000E+000
 0.3000E-001   0.0000E+000   0.0000E+000   0.0000E+000   0.0000E+000
 0.4000E-001   0.0000E+000   0.0000E+000   0.0000E+000   0.0000E+000
 0.5000E-001   0.0000E+000   0.0000E+000   0.0000E+000   0.0000E+000
 0.6000E-001   0.0000E+000   0.0000E+000   0.0000E+000   0.0000E+000
 0.7000E-001   0.0000E+000   0.0000E+000   0.0000E+000   0.0000E+000
 0.8000E-001   0.0000E+000   0.0000E+000   0.0000E+000   0.0000E+000
 0.9000E-001   0.0000E+000   0.0000E+000   0.0000E+000   0.0000E+000
 0.1000E+000   0.0000E+000   0.0000E+000   0.0000E+000   0.0000E+000
 0.1100E+000   0.0000E+000   0.0000E+000   0.0000E+000   0.0000E+000
 0.1200E+000   0.0000E+000   0.0000E+000   0.0000E+000   0.0000E+000
 0.1300E+000   0.0000E+000   0.0000E+000   0.0000E+000   0.0000E+000
 0.1400E+000   0.0000E+000   0.0000E+000   0.0000E+000   0.0000E+000
 0.1500E+000   0.0000E+000   0.0000E+000   0.0000E+000   0.0000E+000
 0.1600E+000   0.0000E+000   0.0000E+000   0.0000E+000   0.0000E+000
 0.1700E+000   0.0000E+000   0.0000E+000   0.0000E+000   0.0000E+000
 0.1800E+000   0.0000E+000   0.0000E+000   0.0000E+000   0.0000E+000
 0.1900E+000   0.0000E+000   0.0000E+000   0.0000E+000   0.0000E+000
 0.2000E+000   0.0000E+000   0.0000E+000   0.0000E+000   0.0000E+000
 0.2100E+000   0.0000E+000   0.0000E+000   0.0000E+000   0.0000E+000
 0.2200E+000   0.0000E+000   0.0000E+000   0.0000E+000   0.0000E+000
 0.2300E+000   0.0000E+000   0.0000E+000   0.0000E+000   0.0000E+000
 0.2400E+000   0.0000E+000   0.0000E+000   0.0000E+000   0.0000E+000
 0.2500E+000   0.0000E+000   0.0000E+000   0.0000E+000   0.0000E+000
 0.2500E+000   0.1000E-001   0.0000E+000   0.0000E+000   0.0000E+000
 0.2500E+000   0.2000E-001   0.0000E+000   0.0000E+000   0.0000E+000
 0.2500E+000   0.3000E-001   0.0000E+000   0.0000E+000   0.0000E+000
 0.2500E+000   0.4000E-001   0.0000E+000   0.0000E+000   0.0000E+000
 0.2500E+000   0.5000E-001   0.0000E+000   0.0000E+000   0.0000E+000
 0.2500E+000   0.6000E-001   0.0000E+000   0.0000E+000   0.0000E+000
 0.2500E+000   0.7000E-001   0.0000E+000   0.0000E+000   0.0000E+000
 0.2500E+000   0.8000E-001   0.0000E+000   0.0000E+000   0.0000E+000
 0.2500E+000   0.9000E-001   0.0000E+000   0.0000E+000   0.0000E+000
 0.2500E+000   0.1000E+000   0.0000E+000   0.0000E+000   0.0000E+000
 0.2500E+000   0.1100E+000   0.0000E+000   0.0000E+000   0.0000E+000
 0.2500E+000   0.1200E+000   0.0000E+000   0.0000E+000   0.0000E+000
 0.2500E+000   0.1300E+000   0.0000E+000   0.0000E+000   0.0000E+000
 0.2500E+000   0.1400E+000   0.0000E+000   0.0000E+000   0.0000E+000
 0.2500E+000   0.1500E+000   0.0000E+000   0.0000E+000   0.0000E+000
 0.2500E+000   0.1600E+000   0.0000E+000   0.0000E+000   0.0000E+000
 0.2500E+000   0.1700E+000   0.0000E+000   0.0000E+000   0.0000E+000
 0.2500E+000   0.1800E+000   0.0000E+000   0.0000E+000   0.0000E+000
 0.2500E+000   0.1900E+000   0.0000E+000   0.0000E+000   0.0000E+000
 0.2500E+000   0.2000E+000   0.0000E+000   0.0000E+000   0.0000E+000
 0.2400E+000   0.2000E+000   0.0000E+000   0.0000E+000   0.0000E+000
 0.2300E+000   0.2000E+000   0.0000E+000   0.0000E+000   0.0000E+000
 0.2200E+000   0.2000E+000   0.0000E+000   0.0000E+000   0.0000E+000
 0.2100E+000   0.2000E+000   0.0000E+000   0.0000E+000   0.0000E+000
 0.2000E+000   0.2000E+000   0.0000E+000   0.0000E+000   0.0000E+000
 0.1900E+000   0.2000E+000   0.0000E+000   0.0000E+000   0.0000E+000
 0.1800E+000   0.2000E+000   0.0000E+000   0.0000E+000   0.0000E+000
 0.1700E+000   0.2000E+000   0.0000E+000   0.0000E+000   0.0000E+000
 0.1600E+000   0.2000E+000   0.0000E+000   0.0000E+000   0.0000E+000
 0.1500E+000   0.2000E+000   0.0000E+000   0.0000E+000   0.0000E+000
 0.1400E+000   0.2000E+000   0.0000E+000   0.0000E+000   0.0000E+000
 0.1300E+000   0.2000E+000   0.0000E+000   0.0000E+000   0.0000E+000
 0.1200E+000   0.2000E+000   0.0000E+000   0.0000E+000   0.0000E+000
 0.1100E+000   0.2000E+000   0.0000E+000   0.0000E+000   0.0000E+000
 0.1000E+000   0.2000E+000   0.0000E+000   0.0000E+000   0.0000E+000
 0.9000E-001   0.2000E+000   0.0000E+000   0.0000E+000   0.0000E+000
 0.8000E-001   0.2000E+000   0.0000E+000   0.0000E+000   0.0000E+000
 0.7000E-001   0.2000E+000   0.0000E+000   0.0000E+000   0.0000E+000
 0.6000E-001   0.2000E+000   0.0000E+000   0.0000E+000   0.0000E+000
 0.5000E-001   0.2000E+000   0.0000E+000   0.0000E+000   0.0000E+000
 0.4000E-001   0.2000E+000   0.0000E+000   0.0000E+000   0.0000E+000
 0.3000E-001   0.2000E+000   0.0000E+000   0.0000E+000   0.0000E+000
 0.2000E-001   0.2000E+000   0.0000E+000   0.0000E+000   0.0000E+000
 0.1000E-001   0.2000E+000   0.0000E+000   0.0000E+000   0.0000E+000
 0.0000E+000   0.2000E+000   0.0000E+000   0.0000E+000   0.0000E+000
 0.0000E+000   0.1900E+000   0.0000E+000   0.0000E+000   0.0000E+000
 0.0000E+000   0.1800E+000   0.0000E+000   0.0000E+000   0.0000E+000
 0.0000E+000   0.1700E+000   0.0000E+000   0.0000E+000   0.0000E+000
 0.0000E+000   0.1600E+000   0.0000E+000   0.0000E+000   0.0000E+000
 0.0000E+000   0.1500E+000   0.0000E+000   0.0000E+000   0.0000E+000
 0.0000E+000   0.1400E+000   0.0000E+000   0.0000E+000   0.0000E+000
 0.0000E+000   0.1300E+000   0.0000E+000   0.0000E+000   0.0000E+000
 0.0000E+000   0.1200E+000   0.0000E+000   0.0000E+000   0.0000E+000
 0.0000E+000   0.1100E+000   0.0000E+000   0.0000E+000   0.0000E+000
 0.0000E+000   0.1000E+000   0.0000E+000   0.0000E+000   0.0000E+000
 0.0000E+000   0.9000E-001   0.0000E+000   0.0000E+000   0.0000E+000
 0.0000E+000   0.8000E-001   0.0000E+000   0.0000E+000   0.0000E+000
 0.0000E+000   0.7000E-001   0.0000E+000   0.0000E+000   0.0000E+000
 0.0000E+000   0.6000E-001   0.0000E+000   0.0000E+000   0.0000E+000
 0.0000E+000   0.5000E-001   0.0000E+000   0.0000E+000   0.0000E+000
 0.0000E+000   0.4000E-001   0.0000E+000   0.0000E+000   0.0000E+000
 0.0000E+000   0.3000E-001   0.0000E+000   0.0000E+000   0.0000E+000
 0.0000E+000   0.2000E-001   0.0000E+000   0.0000E+000   0.0000E+000
 0.0000E+000   0.1000E-001   0.0000E+000   0.0000E+000   0.0000E+000
 0.5000E-002   0.2500E-002   0.0000E+000   0.0000E+000   0.0000E+000
 0.1500E-001   0.2500E-002   0.0000E+000   0.0000E+000   0.0000E+000
 0.2500E-001   0.2500E-002   0.0000E+000   0.0000E+000   0.0000E+000
 0.3500E-001   0.2500E-002   0.0000E+000   0.0000E+000   0.0000E+000
 0.4500E-001   0.2500E-002   0.0000E+000   0.0000E+000   0.0000E+000
 0.5500E-001   0.2500E-002   0.0000E+000   0.0000E+000   0.0000E+000
 0.6500E-001   0.2500E-002   0.0000E+000   0.0000E+000   0.0000E+000
 0.7500E-001   0.2500E-002   0.0000E+000   0.0000E+000   0.0000E+000
 0.8500E-001   0.2500E-002   0.0000E+000   0.0000E+000   0.0000E+000
 0.9500E-001   0.2500E-002   0.0000E+000   0.0000E+000   0.0000E+000
 0.1050E+000   0.2500E-002   0.0000E+000   0.0000E+000   0.0000E+000
 0.1150E+000   0.2500E-002   0.0000E+000   0.0000E+000   0.0000E+000
 0.1250E+000   0.2500E-002   0.0000E+000   0.0000E+000   0.0000E+000
 0.1350E+000   0.2500E-002   0.0000E+000   0.0000E+000   0.0000E+000
 0.1450E+000   0.2500E-002   0.0000E+000   0.0000E+000   0.0000E+000
 0.1550E+000   0.2500E-002   0.0000E+000   0.0000E+000   0.0000E+000
 0.1650E+000   0.2500E-002   0.0000E+000   0.0000E+000   0.0000E+000
 0.1750E+000   0.2500E-002   0.0000E+000   0.0000E+000   0.0000E+000
 0.1850E+000   0.2500E-002   0.0000E+000   0.0000E+000   0.0000E+000
 0.1950E+000   0.2500E-002   0.0000E+000   0.0000E+000   0.0000E+000
 0.2050E+000   0.2500E-002   0.0000E+000   0.0000E+000   0.0000E+000
 0.2150E+000   0.2500E-002   0.0000E+000   0.0000E+000   0.0000E+000
 0.2250E+000   0.2500E-002   0.0000E+000   0.0000E+000   0.0000E+000
 0.2350E+000   0.2500E-002   0.0000E+000   0.0000E+000   0.0000E+000
 0.2450E+000   0.2500E-002   0.0000E+000   0.0000E+000   0.0000E+000
 0.2475E+000   0.5000E-002   0.0000E+000   0.0000E+000   0.0000E+000
 0.2475E+000   0.1500E-001   0.0000E+000   0.0000E+000   0.0000E+000
 0.2475E+000   0.2500E-001   0.0000E+000   0.0000E+000   0.0000E+000
 0.2475E+000   0.3500E-001   0.0000E+000   0.0000E+000   0.0000E+000
 0.2475E+000   0.4500E-001   0.0000E+000   0.0000E+000   0.0000E+000
 0.2475E+000   0.5500E-001   0.0000E+000   0.0000E+000   0.0000E+000
 0.2475E+000   0.6500E-001   0.0000E+000   0.0000E+000   0.0000E+000
 0.2475E+000   0.7500E-001   0.0000E+000   0.0000E+000   0.0000E+000
 0.2475E+000   0.8500E-001   0.0000E+000   0.0000E+000   0.0000E+000
 0.2475E+000   0.9500E-001   0.0000E+000   0.0000E+000   0.0000E+000
 0.2475E+000   0.1050E+000   0.0000E+000   0.0000E+000   0.0000E+000
 0.2475E+000   0.1150E+000   0.0000E+000   0.0000E+000   0.0000E+000
 0.2475E+000   0.1250E+000   0.0000E+000   0.0000E+000   0.0000E+000
 0.2475E+000   0.1350E+000   0.0000E+000   0.0000E+000   0.0000E+000
 0.2475E+000   0.1450E+000   0.0000E+000   0.0000E+000   0.0000E+000
 0.2475E+000   0.1550E+000   0.0000E+000   0.0000E+000   0.0000E+000
 0.2475E+000   0.1650E+000   0.0000E+000   0.0000E+000   0.0000E+000
 0.2475E+000   0.1750E+000   0.0000E+000   0.0000E+000   0.0000E+000
 0.2475E+000   0.1850E+000   0.0000E+000   0.0000E+000   0.0000E+000
 0.2475E+000   0.1950E+000   0.0000E+000   0.0000E+000   0.0000E+000
 0.2450E+000   0.1975E+000   0.0000E+000   0.0000E+000   0.0000E+000
 0.2350E+000   0.1975E+000   0.0000E+000   0.0000E+000   0.0000E+000
 0.2250E+000   0.1975E+000   0.0000E+000   0.0000E+000   0.0000E+000
 0.2150E+000   0.1975E+000   0.0000E+000   0.0000E+000   0.0000E+000
 0.2050E+000   0.1975E+000   0.0000E+000   0.0000E+000   0.0000E+000
 0.1950E+000   0.1975E+000   0.0000E+000   0.0000E+000   0.0000E+000
 0.1850E+000   0.1975E+000   0.0000E+000   0.0000E+000   0.0000E+000
 0.1750E+000   0.1975E+000   0.0000E+000   0.0000E+000   0.0000E+000
 0.1650E+000   0.1975E+000   0.0000E+000   0.0000E+000   0.0000E+000
 0.1550E+000   0.1975E+000   0.0000E+000   0.0000E+000   0.0000E+000
 0.1450E+000   0.1975E+000   0.0000E+000   0.0000E+000   0.0000E+000
 0.1350E+000   0.1975E+000   0.0000E+000   0.0000E+000   0.0000E+000
 0.1250E+000   0.1975E+000   0.0000E+000   0.0000E+000   0.0000E+000
 0.1150E+000   0.1975E+000   0.0000E+000   0.0000E+000   0.0000E+000
 0.1050E+000   0.1975E+000   0.0000E+000   0.0000E+000   0.0000E+000
 0.9500E-001   0.1975E+000   0.0000E+000   0.0000E+000   0.0000E+000
 0.8500E-001   0.1975E+000   0.0000E+000   0.0000E+000   0.0000E+000
 0.7500E-001   0.1975E+000   0.0000E+000   0.0000E+000   0.0000E+000
 0.6500E-001   0.1975E+000   0.0000E+000   0.0000E+000   0.0000E+000
 0.5500E-001   0.1975E+000   0.0000E+000   0.0000E+000   0.0000E+000
 0.4500E-001   0.1975E+000   0.0000E+000   0.0000E+000   0.0000E+000
 0.3500E-001   0.1975E+000   0.0000E+000   0.0000E+000   0.0000E+000
 0.2500E-001   0.1975E+000   0.0000E+000   0.0000E+000   0.0000E+000
 0.1500E-001   0.1975E+000   0.0000E+000   0.0000E+000   0.0000E+000
 0.5000E-002   0.1975E+000   0.0000E+000   0.0000E+000   0.0000E+000
 0.2500E-002   0.1950E+000   0.0000E+000   0.0000E+000   0.0000E+000
 0.2500E-002   0.1850E+000   0.0000E+000   0.0000E+000   0.0000E+000
 0.2500E-002   0.1750E+000   0.0000E+000   0.0000E+000   0.0000E+000
 0.2500E-002   0.1650E+000   0.0000E+000   0.0000E+000   0.0000E+000
 0.2500E-002   0.1550E+000   0.0000E+000   0.0000E+000   0.0000E+000
 0.2500E-002   0.1450E+000   0.0000E+000   0.0000E+000   0.0000E+000
 0.2500E-002   0.1350E+000   0.0000E+000   0.0000E+000   0.0000E+000
 0.2500E-002   0.1250E+000   0.0000E+000   0.0000E+000   0.0000E+000
 0.2500E-002   0.1150E+000   0.0000E+000   0.0000E+000   0.0000E+000
 0.2500E-002   0.1050E+000   0.0000E+000   0.0000E+000   0.0000E+000
 0.2500E-002   0.9500E-001   0.0000E+000   0.0000E+000   0.0000E+000
 0.2500E-002   0.8500E-001   0.0000E+000   0.0000E+000   0.0000E+000
 0.2500E-002   0.7500E-001   0.0000E+000   0.0000E+000   0.0000E+000
 0.2500E-002   0.6500E-001   0.0000E+000   0.0000E+000   0.0000E+000
 0.2500E-002   0.5500E-001   0.0000E+000   0.0000E+000   0.0000E+000
 0.2500E-002   0.4500E-001   0.0000E+000   0.0000E+000   0.0000E+000
 0.2500E-002   0.3500E-001   0.0000E+000   0.0000E+000   0.0000E+000
 0.2500E-002   0.2500E-001   0.0000E+000   0.0000E+000   0.0000E+000
 0.2500E-002   0.1500E-001   0.0000E+000   0.0000E+000   0.0000E+000
 0.2500E-002   0.5000E-002   0.0000E+000   0.0000E+000   0.0000E+000
 0.5000E-002   0.5000E-002   0.0000E+000   0.0000E+000   0.0000E+000
 0.1000E-001   0.5000E-002   0.0000E+000   0.0000E+000   0.0000E+000
 0.1500E-001   0.5000E-002   0.0000E+000   0.0000E+000   0.0000E+000
 0.2000E-001   0.5000E-002   0.0000E+000   0.0000E+000   0.0000E+000
 0.2500E-001   0.5000E-002   0.0000E+000   0.0000E+000   0.0000E+000
 0.3000E-001   0.5000E-002   0.0000E+000   0.0000E+000   0.0000E+000
 0.3500E-001   0.5000E-002   0.0000E+000   0.0000E+000   0.0000E+000
 0.4000E-001   0.5000E-002   0.0000E+000   0.0000E+000   0.0000E+000
 0.4500E-001   0.5000E-002   0.0000E+000   0.0000E+000   0.0000E+000
 0.5000E-001   0.5000E-002   0.0000E+000   0.0000E+000   0.0000E+000
 0.5500E-001   0.5000E-002   0.0000E+000   0.0000E+000   0.0000E+000
 0.6000E-001   0.5000E-002   0.0000E+000   0.0000E+000   0.0000E+000
 0.6500E-001   0.5000E-002   0.0000E+000   0.0000E+000   0.0000E+000
 0.7000E-001   0.5000E-002   0.0000E+000   0.0000E+000   0.0000E+000
 0.7500E-001   0.5000E-002   0.0000E+000   0.0000E+000   0.0000E+000
 0.8000E-001   0.5000E-002   0.0000E+000   0.0000E+000   0.0000E+000
 0.8500E-001   0.5000E-002   0.0000E+000   0.0000E+000   0.0000E+000
 0.9000E-001   0.5000E-002   0.0000E+000   0.0000E+000   0.0000E+000
 0.9500E-001   0.5000E-002   0.0000E+000   0.0000E+000   0.0000E+000
 0.1000E+000   0.5000E-002   0.0000E+000   0.0000E+000   0.0000E+000
 0.1050E+000   0.5000E-002   0.0000E+000   0.0000E+000   0.0000E+000
 0.1100E+000   0.5000E-002   0.0000E+000   0.0000E+000   0.0000E+000
 0.1150E+000   0.5000E-002   0.0000E+000   0.0000E+000   0.0000E+000
 0.1200E+000   0.5000E-002   0.0000E+000   0.0000E+000   0.0000E+000
 0.1250E+000   0.5000E-002   0.0000E+000   0.0000E+000   0.0000E+000
 0.1300E+000   0.5000E-002   0.0000E+000   0.0000E+000   0.0000E+000
 0.1350E+000   0.5000E-002   0.0000E+000   0.0000E+000   0.0000E+000
 0.1400E+000   0.5000E-002   0.0000E+000   0.0000E+000   0.0000E+000
 0.1450E+000   0.5000E-002   0.0000E+000   0.0000E+000   0.0000E+000
 0.1500E+000   0.5000E-002   0.0000E+000   0.0000E+000   0.0000E+000
 0.1550E+000   0.5000E-002   0.0000E+000   0.0000E+000   0.0000E+000
 0.1600E+000   0.5000E-002   0.0000E+000   0.0000E+000   0.0000E+000
 0.1650E+000   0.5000E-002   0.0000E+000   0.0000E+000   0.0000E+000
 0.1700E+000   0.5000E-002   0.0000E+000   0.0000E+000   0.0000E+000
 0.1750E+000   0.5000E-002   0.0000E+000   0.0000E+000   0.0000E+000
 0.1800E+000   0.5000E-002   0.0000E+000   0.0000E+000   0.0000E+000
 0.1850E+000   0.5000E-002   0.0000E+000   0.0000E+000   0.0000E+000
 0.1900E+000   0.5000E-002   0.0000E+000   0.0000E+000   0.0000E+000
 0.1950E+000   0.5000E-002   0.0000E+000   0.0000E+000   0.0000E+000
 0.2000E+000   0.5000E-002   0.0000E+000   0.0000E+000   0.0000E+000
 0.2050E+000   0.5000E-002   0.0000E+000   0.0000E+000   0.0000E+000
 0.2100E+000   0.5000E-002   0.0000E+000   0.0000E+000   0.0000E+000
 0.2150E+000   0.5000E-002   0.0000E+000   0.0000E+000   0.0000E+000
 0.2200E+000   0.5000E-002   0.0000E+000   0.0000E+000   0.0000E+000
 0.2250E+000   0.5000E-002   0.0000E+000   0.0000E+000   0.0000E+000
 0.2300E+000   0.5000E-002   0.0000E+000   0.0000E+000   0.0000E+000
 0.2350E+000   0.5000E-002   0.0000E+000   0.0000E+000   0.0000E+000
 0.2400E+000   0.5000E-002   0.0000E+000   0.0000E+000   0.0000E+000
 0.2450E+000   0.5000E-002   0.0000E+000   0.0000E+000   0.0000E+000
 0.5000E-002   0.1000E-001   0.0000E+000   0.0000E+000   0.0000E+000
 0.1000E-001   0.1000E-001   0.0000E+000   0.0000E+000   0.0000E+000
 0.1500E-001   0.1000E-001   0.0000E+000   0.0000E+000   0.0000E+000
 0.2000E-001   0.1000E-001   0.0000E+000   0.0000E+000   0.0000E+000
 0.2500E-001   0.1000E-001   0.0000E+000   0.0000E+000   0.0000E+000
 0.3000E-001   0.1000E-001   0.0000E+000   0.0000E+000   0.0000E+000
 0.3500E-001   0.1000E-001   0.0000E+000   0.0000E+000   0.0000E+000
 0.4000E-001   0.1000E-001   0.0000E+000   0.0000E+000   0.0000E+000
 0.4500E-001   0.1000E-001   0.0000E+000   0.0000E+000   0.0000E+000
 0.5000E-001   0.1000E-001   0.0000E+000   0.0000E+000   0.0000E+000
 0.5500E-001   0.1000E-001   0.0000E+000   0.0000E+000   0.0000E+000
 0.6000E-001   0.1000E-001   0.0000E+000   0.0000E+000   0.0000E+000
 0.6500E-001   0.1000E-001   0.0000E+000   0.0000E+000   0.0000E+000
 0.7000E-001   0.1000E-001   0.0000E+000   0.0000E+000   0.0000E+000
 0.7500E-001   0.1000E-001   0.0000E+000   0.0000E+000   0.0000E+000
 0.8000E-001   0.1000E-001   0.0000E+000   0.0000E+000   0.0000E+000
 0.8500E-001   0.1000E-001   0.0000E+000   0.0000E+000   0.0000E+000
 0.9000E-001   0.1000E-001   0.0000E+000   0.0000E+000   0.0000E+000
 0.9500E-001   0.1000E-001   0.0000E+000   0.0000E+000   0.0000E+000
 0.1000E+000   0.1000E-001   0.0000E+000   0.0000E+000   0.0000E+000
 0.1050E+000   0.1000E-001   0.0000E+000   0.0000E+000   0.0000E+000
 0.1100E+000   0.1000E-001   0.0000E+000   0.0000E+000   0.0000E+000
 0.1150E+000   0.1000E-001   0.0000E+000   0.0000E+000   0.0000E+000
 0.1200E+000   0.1000E-001   0.0000E+000   0.0000E+000   0.0000E+000
 0.1250E+000   0.1000E-001   0.0000E+000   0.0000E+000   0.0000E+000
 0.1300E+000   0.1000E-001   0.0000E+000   0.0000E+000   0.0000E+000
 0.1350E+000   0.1000E-001   0.0000E+000   0.0000E+000   0.0000E+000
 0.1400E+000   0.1000E-001   0.0000E+000   0.0000E+000   0.0000E+000
 0.1450E+000   0.1000E-001   0.0000E+000   0.0000E+000   0.0000E+000
 0.1500E+000   0.1000E-001   0.0000E+000   0.0000E+000   0.0000E+000
 0.1550E+000   0.1000E-001   0.0000E+000   0.0000E+000   0.0000E+000
 0.1600E+000   0.1000E-001   0.0000E+000   0.0000E+000   0.0000E+000
 0.1650E+000   0.1000E-001   0.0000E+000   0.0000E+000   0.0000E+000
 0.1700E+000   0.1000E-001   0.0000E+000   0.0000E+000   0.0000E+000
 0.1750E+000   0.1000E-001   0.0000E+000   0.0000E+000   0.0000E+000
 0.1800E+000   0.1000E-001   0.0000E+000   0.0000E+000   0.0000E+000
 0.1850E+000   0.1000E-001   0.0000E+000   0.0000E+000   0.0000E+000
 0.1900E+000   0.1000E-001   0.0000E+000   0.0000E+000   0.0000E+000
 0.1950E+000   0.1000E-001   0.0000E+000   0.0000E+000   0.0000E+000
 0.2000E+000   0.1000E-001   0.0000E+000   0.0000E+000   0.0000E+000
 0.2050E+000   0.1000E-001   0.0000E+000   0.0000E+000   0.0000E+000
 0.2100E+000   0.1000E-001   0.0000E+000   0.0000E+000   0.0000E+000
 0.2150E+000   0.1000E-001   0.0000E+000   0.0000E+000   0.0000E+000
 0.2200E+000   0.1000E-001   0.0000E+000   0.0000E+000   0.0000E+000
 0.2250E+000   0.1000E-001   0.0000E+000   0.0000E+000   0.0000E+000
 0.2300E+000   0.1000E-001   0.0000E+000   0.0000E+000   0.0000E+000
 0.2350E+000   0.1000E-001   0.0000E+000   0.0000E+000   0.0000E+000
 0.2400E+000   0.1000E-001   0.0000E+000   0.0000E+000   0.0000E+000
 0.2450E+000   0.1000E-001   0.0000E+000   0.0000E+000   0.0000E+000
 0.5000E-002   0.1500E-001   0.0000E+000   0.0000E+000   0.0000E+000
 0.1000E-001   0.1500E-001   0.0000E+000   0.0000E+000   0.0000E+000
 0.1500E-001   0.1500E-001   0.0000E+000   0.0000E+000   0.0000E+000
 0.2000E-001   0.1500E-001   0.0000E+000   0.0000E+000   0.0000E+000
 0.2500E-001   0.1500E-001   0.0000E+000   0.0000E+000   0.0000E+000
 0.3000E-001   0.1500E-001   0.0000E+000   0.0000E+000   0.0000E+000
 0.3500E-001   0.1500E-001   0.0000E+000   0.0000E+000   0.0000E+000
 0.4000E-001   0.1500E-001   0.0000E+000   0.0000E+000   0.0000E+000
 0.4500E-001   0.1500E-001   0.0000E+000   0.0000E+000   0.0000E+000
 0.5000E-001   0.1500E-001   0.0000E+000   0.0000E+000   0.0000E+000
 0.5500E-001   0.1500E-001   0.0000E+000   0.0000E+000   0.0000E+000
 0.6000E-001   0.1500E-001   0.0000E+000   0.0000E+000   0.0000E+000
 0.6500E-001   0.1500E-001   0.0000E+000   0.0000E+000   0.0000E+000
 0.7000E-001   0.1500E-001   0.0000E+000   0.0000E+000   0.0000E+000
 0.7500E-001   0.1500E-001   0.0000E+000   0.0000E+000   0.0000E+000
 0.8000E-001   0.1500E-001   0.0000E+000   0.0000E+000   0.0000E+000
 0.8500E-001   0.1500E-001   0.0000E+000   0.0000E+000   0.0000E+000
 0.9000E-001   0.1500E-001   0.0000E+000   0.0000E+000   0.0000E+000
 0.9500E-001   0.1500E-001   0.0000E+000   0.0000E+000   0.0000E+000
 0.1000E+000   0.1500E-001   0.0000E+000   0.0000E+000   0.0000E+000
 0.1050E+000   0.1500E-001   0.0000E+000   0.0000E+000   0.0000E+000
 0.1100E+000   0.1500E-001   0.0000E+000   0.0000E+000   0.0000E+000
 0.1150E+000   0.1500E-001   0.0000E+000   0.0000E+000   0.0000E+000
 0.1200E+000   0.1500E-001   0.0000E+000   0.0000E+000   0.0000E+000
 0.1250E+000   0.1500E-001   0.0000E+000   0.0000E+000   0.0000E+000
 0.1300E+000   0.1500E-001   0.0000E+000   0.0000E+000   0.0000E+000
 0.1350E+000   0.1500E-001   0.0000E+000   0.0000E+000   0.0000E+000
 0.1400E+000   0.1500E-001   0.0000E+000   0.0000E+000   0.0000E+000
 0.1450E+000   0.1500E-001   0.0000E+000   0.0000E+000   0.0000E+000
 0.1500E+000   0.1500E-001   0.0000E+000   0.0000E+000   0.0000E+000
 0.1550E+000   0.1500E-001   0.0000E+000   0.0000E+000   0.0000E+000
 0.1600E+000   0.1500E-001   0.0000E+000   0.0000E+000   0.0000E+000
 0.1650E+000   0.1500E-001   0.0000E+000   0.0000E+000   0.0000E+000
 0.1700E+000   0.1500E-001   0.0000E+000   0.0000E+000   0.0000E+000
 0.1750E+000   0.1500E-001   0.0000E+000   0.0000E+000   0.0000E+000
 0.1800E+000   0.1500E-001   0.0000E+000   0.0000E+000   0.0000E+000
 0.1850E+000   0.1500E-001   0.0000E+000   0.0000E+000   0.0000E+000
 0.1900E+000   0.1500E-001   0.0000E+000   0.0000E+000   0.0000E+000
 0.1950E+000   0.1500E-001   0.0000E+000   0.0000E+000   0.0000E+000
 0.2000E+000   0.1500E-001   0.0000E+000   0.0000E+000   0.0000E+000
 0.2050E+000   0.1500E-001   0.0000E+000   0.0000E+000   0.0000E+000
 0.2100E+000   0.1500E-001   0.0000E+000   0.0000E+000   0.0000E+000
 0.2150E+000   0.1500E-001   0.0000E+000   0.0000E+000   0.0000E+000
 0.2200E+000   0.1500E-001   0.0000E+000   0.0000E+000   0.0000E+000
 0.2250E+000   0.1500E-001   0.0000E+000   0.0000E+000   0.0000E+000
 0.2300E+000   0.1500E-001   0.0000E+000   0.0000E+000   0.0000E+000
 0.2350E+000   0.1500E-001   0.0000E+000   0.0000E+000   0.0000E+000
 0.2400E+000   0.1500E-001   0.0000E+000   0.0000E+000   0.0000E+000
 0.2450E+000   0.1500E-001   0.0000E+000   0.0000E+000   0.0000E+000
 0.5000E-002   0.2000E-001   0.0000E+000   0.0000E+000   0.0000E+000
 0.1000E-001   0.2000E-001   0.0000E+000   0.0000E+000   0.0000E+000
 0.1500E-001   0.2000E-001   0.0000E+000   0.0000E+000   0.0000E+000
 0.2000E-001   0.2000E-001   0.0000E+000   0.0000E+000   0.0000E+000
 0.2500E-001   0.2000E-001   0.0000E+000   0.0000E+000   0.0000E+000
 0.3000E-001   0.2000E-001   0.0000E+000   0.0000E+000   0.0000E+000
 0.3500E-001   0.2000E-001   0.0000E+000   0.0000E+000   0.0000E+000
 0.4000E-001   0.2000E-001   0.0000E+000   0.0000E+000   0.0000E+000
 0.4500E-001   0.2000E-001   0.0000E+000   0.0000E+000   0.0000E+000
 0.5000E-001   0.2000E-001   0.0000E+000   0.0000E+000   0.0000E+000
 0.5500E-001   0.2000E-001   0.0000E+000   0.0000E+000   0.0000E+000
 0.6000E-001   0.2000E-001   0.0000E+000   0.0000E+000   0.0000E+000
 0.6500E-001   0.2000E-001   0.0000E+000   0.0000E+000   0.0000E+000
 0.7000E-001   0.2000E-001   0.0000E+000   0.0000E+000   0.0000E+000
 0.7500E-001   0.2000E-001   0.0000E+000   0.0000E+000   0.0000E+000
 0.8000E-001   0.2000E-001   0.0000E+000   0.0000E+000   0.0000E+000
 0.8500E-001   0.2000E-001   0.0000E+000   0.0000E+000   0.0000E+000
 0.9000E-001   0.2000E-001   0.0000E+000   0.0000E+000   0.0000E+000
 0.9500E-001   0.2000E-001   0.0000E+000   0.0000E+000   0.0000E+000
 0.1000E+000   0.2000E-001   0.0000E+000   0.0000E+000   0.0000E+000
 0.1050E+000   0.2000E-001   0.0000E+000   0.0000E+000   0.0000E+000
 0.1100E+000   0.2000E-001   0.0000E+000   0.0000E+000   0.0000E+000
 0.1150E+000   0.2000E-001   0.0000E+000   0.0000E+000   0.0000E+000
 0.1200E+000   0.2000E-001   0.0000E+000   0.0000E+000   0.0000E+000
 0.1250E+000   0.2000E-001   0.0000E+000   0.0000E+000   0.0000E+000
 0.1300E+000   0.2000E-001   0.0000E+000   0.0000E+000   0.0000E+000
 0.1350E+000   0.2000E-001   0.0000E+000   0.0000E+000   0.0000E+000
 0.1400E+000   0.2000E-001   0.0000E+000   0.0000E+000   0.0000E+000
 0.1450E+000   0.2000E-001   0.0000E+000   0.0000E+000   0.0000E+000
 0.1500E+000   0.2000E-001   0.0000E+000   0.0000E+000   0.0000E+000
 0.1550E+000   0.2000E-001   0.0000E+000   0.0000E+000   0.0000E+000
 0.1600E+000   0.2000E-001   0.0000E+000   0.0000E+000   0.0000E+000
 0.1650E+000   0.2000E-001   0.0000E+000   0.0000E+000   0.0000E+000
 0.1700E+000   0.2000E-001   0.0000E+000   0.0000E+000   0.0000E+000
 0.1750E+000   0.2000E-001   0.0000E+000   0.0000E+000   0.0000E+000
 0.1800E+000   0.2000E-001   0.0000E+000   0.0000E+000   0.0000E+000
 0.1850E+000   0.2000E-001   0.0000E+000   0.0000E+000   0.0000E+000
 0.1900E+000   0.2000E-001   0.0000E+000   0.0000E+000   0.0000E+000
 0.1950E+000   0.2000E-001   0.0000E+000   0.0000E+000   0.0000E+000
 0.2000E+000   0.2000E-001   0.0000E+000   0.0000E+000   0.0000E+000
 0.2050E+000   0.2000E-001   0.0000E+000   0.0000E+000   0.0000E+000
 0.2100E+000   0.2000E-001   0.0000E+000   0.0000E+000   0.0000E+000
 0.2150E+000   0.2000E-001   0.0000E+000   0.0000E+000   0.0000E+000
 0.2200E+000   0.2000E-001   0.0000E+000   0.0000E+000   0.0000E+000
 0.2250E+000   0.2000E-001   0.0000E+000   0.0000E+000   0.0000E+000
 0.2300E+000   0.2000E-001   0.0000E+000   0.0000E+000   0.0000E+000
 0.2350E+000   0.2000E-001   0.0000E+000   0.0000E+000   0.0000E+000
 0.2400E+000   0.2000E-001   0.0000E+000   0.0000E+000   0.0000E+000
 0.2450E+000   0.2000E-001   0.0000E+000   0.0000E+000   0.0000E+000
 0.5000E-002   0.2500E-001   0.0000E+000   0.0000E+000   0.0000E+000
 0.1000E-001   0.2500E-001   0.0000E+000   0.0000E+000   0.0000E+000
 0.1500E-001   0.2500E-001   0.0000E+000   0.0000E+000   0.0000E+000
 0.2000E-001   0.2500E-001   0.0000E+000   0.0000E+000   0.0000E+000
 0.2500E-001   0.2500E-001   0.0000E+000   0.0000E+000   0.0000E+000
 0.3000E-001   0.2500E-001   0.0000E+000   0.0000E+000   0.0000E+000
 0.3500E-001   0.2500E-001   0.0000E+000   0.0000E+000   0.0000E+000
 0.4000E-001   0.2500E-001   0.0000E+000   0.0000E+000   0.0000E+000
 0.4500E-001   0.2500E-001   0.0000E+000   0.0000E+000   0.0000E+000
 0.5000E-001   0.2500E-001   0.0000E+000   0.0000E+000   0.0000E+000
 0.5500E-001   0.2500E-001   0.0000E+000   0.0000E+000   0.0000E+000
 0.6000E-001   0.2500E-001   0.0000E+000   0.0000E+000   0.0000E+000
 0.6500E-001   0.2500E-001   0.0000E+000   0.0000E+000   0.0000E+000
 0.7000E-001   0.2500E-001   0.0000E+000   0.0000E+000   0.0000E+000
 0.7500E-001   0.2500E-001   0.0000E+000   0.0000E+000   0.0000E+000
 0.8000E-001   0.2500E-001   0.0000E+000   0.0000E+000   0.0000E+000
 0.8500E-001   0.2500E-001   0.0000E+000   0.0000E+000   0.0000E+000
 0.9000E-001   0.2500E-001   0.0000E+000   0.0000E+000   0.0000E+000
 0.9500E-001   0.2500E-001   0.0000E+000   0.0000E+000   0.0000E+000
 0.1000E+000   0.2500E-001   0.0000E+000   0.0000E+000   0.0000E+000
 0.1050E+000   0.2500E-001   0.0000E+000   0.0000E+000   0.0000E+000
 0.1100E+000   0.2500E-001   0.0000E+000   0.0000E+000   0.0000E+000
 0.1150E+000   0.2500E-001   0.0000E+000   0.0000E+000   0.0000E+000
 0.1200E+000   0.2500E-001   0.0000E+000   0.0000E+000   0.0000E+000
 0.1250E+000   0.2500E-001   0.0000E+000   0.0000E+000   0.0000E+000
 0.1300E+000   0.2500E-001   0.0000E+000   0.0000E+000   0.0000E+000
 0.1350E+000   0.2500E-001   0.0000E+000   0.0000E+000   0.0000E+000
 0.1400E+000   0.2500E-001   0.0000E+000   0.0000E+000   0.0000E+000
 0.1450E+000   0.2500E-001   0.0000E+000   0.0000E+000   0.0000E+000
 0.1500E+000   0.2500E-001   0.0000E+000   0.0000E+000   0.0000E+000
 0.1550E+000   0.2500E-001   0.0000E+000   0.0000E+000   0.0000E+000
 0.1600E+000   0.2500E-001   0.0000E+000   0.0000E+000   0.0000E+000
 0.1650E+000   0.2500E-001   0.0000E+000   0.0000E+000   0.0000E+000
 0.1700E+000   0.2500E-001   0.0000E+000   0.0000E+000   0.0000E+000
 0.1750E+000   0.2500E-001   0.0000E+000   0.0000E+000   0.0000E+000
 0.1800E+000   0.2500E-001   0.0000E+000   0.0000E+000   0.0000E+000
 0.1850E+000   0.2500E-001   0.0000E+000   0.0000E+000   0.0000E+000
 0.1900E+000   0.2500E-001   0.0000E+000   0.0000E+000   0.0000E+000
 0.1950E+000   0.2500E-001   0.0000E+000   0.0000E+000   0.0000E+000
 0.2000E+000   0.2500E-001   0.0000E+000   0.0000E+000   0.0000E+000
 0.2050E+000   0.2500E-001   0.0000E+000   0.0000E+000   0.0000E+000
 0.2100E+000   0.2500E-001   0.0000E+000   0.0000E+000   0.0000E+000
 0.2150E+000   0.2500E-001   0.0000E+000   0.0000E+000   0.0000E+000
 0.2200E+000   0.2500E-001   0.0000E+000   0.0000E+000   0.0000E+000
 0.2250E+000   0.2500E-001   0.0000E+000   0.0000E+000   0.0000E+000
 0.2300E+000   0.2500E-001   0.0000E+000   0.0000E+000   0.0000E+000
 0.2350E+000   0.2500E-001   0.0000E+000   0.0000E+000   0.0000E+000
 0.2400E+000   0.2500E-001   0.0000E+000   0.0000E+000   0.0000E+000
 0.2450E+000   0.2500E-001   0.0000E+000   0.0000E+000   0.0000E+000
 0.5000E-002   0.3000E-001   0.0000E+000   0.0000E+000   0.0000E+000
 0.1000E-001   0.3000E-001   0.0000E+000   0.0000E+000   0.0000E+000
 0.1500E-001   0.3000E-001   0.0000E+000   0.0000E+000   0.0000E+000
 0.2000E-001   0.3000E-001   0.0000E+000   0.0000E+000   0.0000E+000
 0.2500E-001   0.3000E-001   0.0000E+000   0.0000E+000   0.0000E+000
 0.3000E-001   0.3000E-001   0.0000E+000   0.0000E+000   0.0000E+000